5
Properties=species:S:1:pos:R:3:forces:R:3 #Structure=T +=T energy=85.69850396804523 pbc="F F F"
C       0.00000000       0.00000000       0.00000000      18.17925232      53.09397469      71.53610779 
H      -0.41712494       0.00000000       1.00702869      -0.53187332    -111.96977584      47.17927490 
H       0.76368590      -0.55485029      -0.54500000     -30.14583601     -20.05138245     -21.85057300 
H       0.76368590       0.55485029       0.54500000      48.73839992      21.90234167       5.53036360 
H      -0.60932852       0.83866876       0.33682852     -36.24247269      57.02344085    -102.39560603 
5
Properties=species:S:1:pos:R:3:forces:R:3 #Structure=T +=T energy=76.07809605627769 pbc="F F F"
C       0.00000000       0.00000000       0.00000000      15.75523549      53.86828943      72.60107564 
H      -0.41712494       0.00000000       1.00702869      -2.88355003    -102.04224752      40.77839859 
H       0.76368590      -0.55485029      -0.54500000     -29.71475297     -20.09414973     -22.17007938 
H       0.76368590       0.55485029       0.54500000      45.48260816      23.41833451       5.70611351 
H      -0.62298372       0.85746353       0.25445545     -28.64046241      44.84812754     -96.91313924 
5
Properties=species:S:1:pos:R:3:forces:R:3 #Structure=T +=T energy=67.42748179312275 pbc="F F F"
C       0.00000000       0.00000000       0.00000000      13.77605551      54.66511852      71.46917769 
H      -0.41712494       0.00000000       1.00702869      -5.48987727     -93.72075270      35.35759300 
H       0.76368590      -0.55485029      -0.54500000     -29.11521438     -20.59663984     -21.89613140 
H       0.76368590       0.55485029       0.54500000      42.58769956      25.21530930       5.41092903 
H      -0.63279802       0.87097175       0.17051357     -21.75281666      34.42974241     -90.34872424 
5
Properties=species:S:1:pos:R:3:forces:R:3 #Structure=T +=T energy=59.69940832346717 pbc="F F F"
C       0.00000000       0.00000000       0.00000000      12.28663808      55.35698100      68.56214985 
H      -0.41712494       0.00000000       1.00702869      -8.25945303     -86.56854512      30.64320158 
H       0.76368590      -0.55485029      -0.54500000     -28.36601057     -21.48849406     -21.11370642 
H       0.76368590       0.55485029       0.54500000      40.04786265      27.17561800       4.74839241 
H      -0.63871090       0.87911014       0.08552041     -15.71446296      25.52967508     -82.83596619 
5
Properties=species:S:1:pos:R:3:forces:R:3 #Structure=T +=T energy=52.874816958870824 pbc="F F F"
C       0.00000000       0.00000000       0.00000000      11.32032112      55.80427476      64.22732833 
H      -0.41712494       0.00000000       1.00702869     -11.11203622     -80.34099957      26.45491378 
H       0.76368590      -0.55485029      -0.54500000     -27.48218329     -22.71183740     -19.89978387 
H       0.76368590       0.55485029       0.54500000      37.88227227      29.20643411       3.78379633 
H      -0.64068592       0.88182852       0.00000000     -10.60237095      18.04291450     -74.56202973 
5
Properties=species:S:1:pos:R:3:forces:R:3 #Structure=T +=T energy=46.92761885737405 pbc="F F F"
C       0.00000000       0.00000000       0.00000000      10.91916024      55.91262953      58.78434534 
H      -0.41712494       0.00000000       1.00702869     -14.00747340     -74.87396480      22.66645675 
H       0.76368590      -0.55485029      -0.54500000     -26.47154305     -24.22041311     -18.31699367 
H       0.76368590       0.55485029       0.54500000      36.03845833      31.25894273       2.59263790 
H      -0.63871090       0.87911014      -0.08552041      -6.48657535      11.92277289     -65.72963645 
5
Properties=species:S:1:pos:R:3:forces:R:3 #Structure=T +=T energy=41.83046077851286 pbc="F F F"
C       0.00000000       0.00000000       0.00000000      11.10006160      55.57739317      52.54034209 
H      -0.41712494       0.00000000       1.00702869     -16.88550408     -70.04564195      19.19906654 
H       0.76368590      -0.55485029      -0.54500000     -25.33534360     -25.97612406     -16.41378375 
H       0.76368590       0.55485029       0.54500000      34.50278591      33.27322521       1.23111367 
H      -0.63279802       0.87097175      -0.17051357      -3.38318177       7.16192721     -56.55793289 
5
Properties=species:S:1:pos:R:3:forces:R:3 #Structure=T +=T energy=37.56332385219541 pbc="F F F"
C       0.00000000       0.00000000       0.00000000      11.87460478      54.74475421      45.72542528 
H      -0.41712494       0.00000000       1.00702869     -19.72440422     -65.78736199      16.01677689 
H       0.76368590      -0.55485029      -0.54500000     -24.07027413     -27.94940894     -14.22938008 
H       0.76368590       0.55485029       0.54500000      33.22938523      35.23832957      -0.25844921 
H      -0.62298372       0.85746353      -0.25445545      -1.30125633       3.75284781     -47.24661805 
5
Properties=species:S:1:pos:R:3:forces:R:3 #Structure=T +=T energy=34.10687169699874 pbc="F F F"
C       0.00000000       0.00000000       0.00000000      13.25897127      53.35207056      38.57188425 
H      -0.41712494       0.00000000       1.00702869     -22.51034118     -62.02742912      13.08855317 
H       0.76368590      -0.55485029      -0.54500000     -22.66807292     -30.12242753     -11.79211456 
H       0.76368590       0.55485029       0.54500000      32.17121549      37.13933009      -1.83936859 
H      -0.60932852       0.83866876      -0.33682852      -0.25054535       1.66838195     -38.02363793 
5
Properties=species:S:1:pos:R:3:forces:R:3 #Structure=T +=T energy=86.21096776955015 pbc="F F F"
C       0.00000000       0.00000000       0.00000000      20.92382864      53.20877651      70.29052457 
H      -0.41712494       0.00000000       1.00702869       5.14470417    -113.61359216      52.40620403 
H       0.76368590      -0.55485029      -0.54500000     -31.63838916     -22.96305888     -21.59712394 
H       0.76368590       0.55485029       0.54500000      43.12783151      26.54854538       2.48323200 
H      -0.67325136       0.78827606       0.33682852     -37.55918276      56.81916217    -103.58156330 
5
Properties=species:S:1:pos:R:3:forces:R:3 #Structure=T +=T energy=76.5204864175316 pbc="F F F"
C       0.00000000       0.00000000       0.00000000      17.70078088      53.33606392      71.75758468 
H      -0.41712494       0.00000000       1.00702869       1.93406506    -103.57850029      45.26067735 
H       0.76368590      -0.55485029      -0.54500000     -31.11630668     -22.79636069     -21.92546069 
H       0.76368590       0.55485029       0.54500000      40.19220610      28.16790893       2.52438819 
H      -0.68833908       0.80594152       0.25445545     -28.70852197      44.86240967     -97.62525129 
5
Properties=species:S:1:pos:R:3:forces:R:3 #Structure=T +=T energy=67.82677903454848 pbc="F F F"
C       0.00000000       0.00000000       0.00000000      14.96627066      53.53979712      70.99657247 
H      -0.41712494       0.00000000       1.00702869      -1.32629572     -95.31517188      39.29469530 
H       0.76368590      -0.55485029      -0.54500000     -30.41077937     -23.08354325     -21.66220411 
H       0.76368590       0.55485029       0.54500000      37.60845503      30.00893841       2.14957164 
H      -0.69918297       0.81863808       0.17051357     -20.83923389      34.84768323     -90.78103792 
5
Properties=species:S:1:pos:R:3:forces:R:3 #Structure=T +=T energy=60.07613402464752 pbc="F F F"
C       0.00000000       0.00000000       0.00000000      12.77436553      53.68343812      68.40869725 
H      -0.41712494       0.00000000       1.00702869      -4.60813243     -88.29636288      34.17096226 
H       0.76368590      -0.55485029      -0.54500000     -29.54626834     -23.76066124     -20.89163177 
H       0.76368590       0.55485029       0.54500000      35.39445423      31.95938972       1.44206906 
H      -0.70571616       0.82628746       0.08552041     -14.01903971      26.41719531     -83.12540197 
5
Properties=species:S:1:pos:R:3:forces:R:3 #Structure=T +=T energy=53.2352563195349 pbc="F F F"
C       0.00000000       0.00000000       0.00000000      11.16784910      53.65595001      64.34373565 
H      -0.41712494       0.00000000       1.00702869      -7.88386273     -82.22668553      29.66405481 
H       0.76368590      -0.55485029      -0.54500000     -28.54087066     -24.77234817     -19.69014800 
H       0.76368590       0.55485029       0.54500000      33.54387449      33.94643879       0.46767254 
H      -0.70789837       0.82884250       0.00000000      -8.27702246      19.39139642     -74.78627291 
5
Properties=species:S:1:pos:R:3:forces:R:3 #Structure=T +=T energy=47.26422464099872 pbc="F F F"
C       0.00000000       0.00000000       0.00000000      10.18415646      53.37759928      59.14812779 
H      -0.41712494       0.00000000       1.00702869     -11.13151914     -76.90202078      25.60922030 
H       0.76368590      -0.55485029      -0.54500000     -27.40359653     -26.07312036     -18.11848966 
H       0.76368590       0.55485029       0.54500000      32.00217539      35.92303999      -0.69938373 
H      -0.70571616       0.82628746      -0.08552041      -3.65350272      13.67677116     -65.93583269 
5
Properties=species:S:1:pos:R:3:forces:R:3 #Structure=T +=T energy=42.14109221427396 pbc="F F F"
C       0.00000000       0.00000000       0.00000000       9.84659171      52.73691826      53.10764338 
H      -0.41712494       0.00000000       1.00702869     -14.31255036     -72.18553954      21.90661718 
H       0.76368590      -0.55485029      -0.54500000     -26.13878102     -27.62811926     -16.22540246 
H       0.76368590       0.55485029       0.54500000      30.75309460      37.84182788      -2.01310946 
H      -0.69918297       0.81863808      -0.17051357      -0.15802440       9.23809522     -56.77377097 
5
Properties=species:S:1:pos:R:3:forces:R:3 #Structure=T +=T energy=37.84752904423975 pbc="F F F"
C       0.00000000       0.00000000       0.00000000      10.17228566      51.66251096      46.45991631 
H      -0.41712494       0.00000000       1.00702869     -17.41106657     -68.00447384      18.50727817 
H       0.76368590      -0.55485029      -0.54500000     -24.74525672     -29.40771087     -14.05115863 
H       0.76368590       0.55485029       0.54500000      29.76548742      39.68184897      -3.43633512 
H      -0.68833908       0.80594152      -0.25445545       2.22121509       6.06547531     -47.47880220 
5
Properties=species:S:1:pos:R:3:forces:R:3 #Structure=T +=T energy=34.358380465312635 pbc="F F F"
C       0.00000000       0.00000000       0.00000000      11.17182295      50.11881818      39.44301238 
H      -0.41712494       0.00000000       1.00702869     -20.42241405     -64.29314767      15.37628820 
H       0.76368590      -0.55485029      -0.54500000     -23.21528603     -31.39074752     -11.62433873 
H       0.76368590       0.55485029       0.54500000      28.98595477      41.43455011      -4.93143397 
H      -0.67325136       0.78827606      -0.33682852       3.48495838       4.13311267     -38.25827257 
5
Properties=species:S:1:pos:R:3:forces:R:3 #Structure=T +=T energy=87.04795677717232 pbc="F F F"
C       0.00000000       0.00000000       0.00000000      23.58601451      52.89282887      67.85949237 
H      -0.41712494       0.00000000       1.00702869      11.16769372    -114.63272871      57.94437538 
H       0.76368590      -0.55485029      -0.54500000     -32.89015044     -26.02955706     -20.94204382 
H       0.76368590       0.55485029       0.54500000      37.66661599      31.11441421      -0.21349500 
H      -0.73302338       0.73302338       0.33682852     -39.53191719      56.65018532    -104.65243626 
5
Properties=species:S:1:pos:R:3:forces:R:3 #Structure=T +=T energy=77.28709397767109 pbc="F F F"
C       0.00000000       0.00000000       0.00000000      19.63144906      52.35522420      69.81382126 
H      -0.41712494       0.00000000       1.00702869       6.98029889    -104.55298861      49.96942801 
H       0.76368590      -0.55485029      -0.54500000     -32.28701109     -25.65997692     -21.28729293 
H       0.76368590       0.55485029       0.54500000      35.03289172      32.83500598      -0.31259912 
H      -0.74945061       0.74945061       0.25445545     -29.36005962      45.01674475     -98.18777215 
5
Properties=species:S:1:pos:R:3:forces:R:3 #Structure=T +=T energy=68.5621575974117 pbc="F F F"
C       0.00000000       0.00000000       0.00000000      16.20529306      51.93505029      69.50164136 
H      -0.41712494       0.00000000       1.00702869       3.00922140     -96.41519220      43.40886991 
H       0.76368590      -0.55485029      -0.54500000     -31.48651230     -25.73765869     -21.04636680 
H       0.76368590       0.55485029       0.54500000      32.76225470      34.71916078      -0.78341839 
H      -0.76125722       0.76125722       0.17051357     -20.49702290      35.50173007     -91.07627806 
5
Properties=species:S:1:pos:R:3:forces:R:3 #Structure=T +=T energy=60.8015172021514 pbc="F F F"
C       0.00000000       0.00000000       0.00000000      13.37235839      51.50798702      67.30858331 
H      -0.41712494       0.00000000       1.00702869      -0.81740087     -89.59790185      37.84924840 
H       0.76368590      -0.55485029      -0.54500000     -30.51759406     -26.20397775     -20.30207276 
H       0.76368590       0.55485029       0.54500000      30.86817429      36.66936353      -1.55508910 
H      -0.76837044       0.76837044       0.08552041     -12.90525879      27.62185946     -83.30215736 
5
Properties=species:S:1:pos:R:3:forces:R:3 #Structure=T +=T energy=53.94971206314004 pbc="F F F"
C       0.00000000       0.00000000       0.00000000      11.17710938      50.99269835      63.60643819 
H      -0.41712494       0.00000000       1.00702869      -4.53231691     -83.73878123      33.00301353 
H       0.76368590      -0.55485029      -0.54500000     -29.39985577     -27.00605649     -19.12787388 
H       0.76368590       0.55485029       0.54500000      29.32187335      38.62022321      -2.55522774 
H      -0.77074639       0.77074639       0.00000000      -6.55518162      21.12150748     -74.93267568 
5
Properties=species:S:1:pos:R:3:forces:R:3 #Structure=T +=T energy=47.9616924428266 pbc="F F F"
C       0.00000000       0.00000000       0.00000000       9.65295889      50.30989423      58.74235864 
H      -0.41712494       0.00000000       1.00702869      -8.14049987     -78.60104049      28.66766361 
H       0.76368590      -0.55485029      -0.54500000     -28.14458567     -28.10056948     -17.58310697 
H       0.76368590       0.55485029       0.54500000      28.07909637      40.52537055      -3.71841286 
H      -0.76837044       0.76837044      -0.08552041      -1.44454418      15.86597579     -66.10253318 
5
Properties=species:S:1:pos:R:3:forces:R:3 #Structure=T +=T energy=42.81536781651756 pbc="F F F"
C       0.00000000       0.00000000       0.00000000       8.82891935      49.35572802      52.99288377 
H      -0.41712494       0.00000000       1.00702869     -11.62906006     -74.03848139      24.72042982 
H       0.76368590      -0.55485029      -0.54500000     -26.75825998     -29.45419109     -15.71614812 
H       0.76368590       0.55485029       0.54500000      27.11564969      42.35193873      -5.00495981 
H      -0.76125722       0.76125722      -0.17051357       2.43553280      11.79450669     -56.98355615 
5
Properties=species:S:1:pos:R:3:forces:R:3 #Structure=T +=T energy=38.493830984432975 pbc="F F F"
C       0.00000000       0.00000000       0.00000000       8.72999055      48.04908727      46.59539986 
H      -0.41712494       0.00000000       1.00702869     -14.99498482     -69.97143591      21.09538098 
H       0.76368590      -0.55485029      -0.54500000     -25.24194160     -31.03898059     -13.56734577 
H       0.76368590       0.55485029       0.54500000      26.40004836      44.07933760      -6.38053943 
H      -0.74945061       0.74945061      -0.25445545       5.10600771       8.88649821     -47.74298938 
5
Properties=species:S:1:pos:R:3:forces:R:3 #Structure=T +=T energy=34.972200017066214 pbc="F F F"
C       0.00000000       0.00000000       0.00000000       9.36751859      46.35254157      39.79141253 
H      -0.41712494       0.00000000       1.00702869     -18.24007743     -66.33869256      17.75202628 
H       0.76368590      -0.55485029      -0.54500000     -23.58981430     -32.83252385     -11.16645531 
H       0.76368590       0.55485029       0.54500000      25.88580354      45.69609626      -7.81206953 
H      -0.73302338       0.73302338      -0.33682852       6.58141987       7.12198004     -38.56650200 
5
Properties=species:S:1:pos:R:3:forces:R:3 #Structure=T +=T energy=88.1723537850731 pbc="F F F"
C       0.00000000       0.00000000       0.00000000      26.16717496      52.21398192      64.30195561 
H      -0.41712494       0.00000000       1.00702869      17.48465204    -114.89925249      63.72909728 
H       0.76368590      -0.55485029      -0.54500000     -33.86813348     -29.19062663     -19.90729467 
H       0.76368590       0.55485029       0.54500000      32.36792617      35.54430149      -2.53650992 
H      -0.78827606       0.67325136       0.33682852     -42.15523761      56.32890755    -105.58776340 
5
Properties=species:S:1:pos:R:3:forces:R:3 #Structure=T +=T energy=78.3501564309168 pbc="F F F"
C       0.00000000       0.00000000       0.00000000      21.55731462      50.98879870      66.80257365 
H      -0.41712494       0.00000000       1.00702869      12.19964376    -104.88302837      54.84780801 
H       0.76368590      -0.55485029      -0.54500000     -33.19534049     -28.63018520     -20.27393546 
H       0.76368590       0.55485029       0.54500000      30.03167440      37.36735323      -2.79040740 
H      -0.80594152       0.68833908       0.25445545     -30.59867824      45.15891919     -98.58289521 
5
Properties=species:S:1:pos:R:3:forces:R:3 #Structure=T +=T energy=69.60971341682219 pbc="F F F"
C       0.00000000       0.00000000       0.00000000      17.51169373      49.92122604      67.00124939 
H      -0.41712494       0.00000000       1.00702869       7.45908860     -96.97002392      47.65466067 
H       0.76368590      -0.55485029      -0.54500000     -32.31197353     -28.50832564     -20.06403274 
H       0.76368590       0.55485029       0.54500000      28.07102578      39.30322705      -3.37844520 
H      -0.81863808       0.69918297       0.17051357     -20.73533190      36.25694387     -91.21104710 
5
Properties=species:S:1:pos:R:3:forces:R:3 #Structure=T +=T energy=61.84845821151145 pbc="F F F"
C       0.00000000       0.00000000       0.00000000      14.10096871      48.91421360      65.28480376 
H      -0.41712494       0.00000000       1.00702869       3.06061177     -90.43222349      41.63610648 
H       0.76368590      -0.55485029      -0.54500000     -31.24947962     -28.77088734     -19.35670303 
H       0.76368590       0.55485029       0.54500000      26.48309525      41.26472433      -4.23062494 
H      -0.82628746       0.70571616       0.08552041     -12.39086255      29.01612552     -83.34181079 
5
Properties=species:S:1:pos:R:3:forces:R:3 #Structure=T +=T energy=54.99378119054677 pbc="F F F"
C       0.00000000       0.00000000       0.00000000      11.36874222      47.89959258      62.03109182 
H      -0.41712494       0.00000000       1.00702869      -1.10144186     -84.84370674      36.43515565 
H       0.76368590      -0.55485029      -0.54500000     -30.02938407     -29.36876876     -18.22185470 
H       0.76368590       0.55485029       0.54500000      25.23250151      43.19028823      -5.27624527 
H      -0.82884250       0.70789837       0.00000000      -5.46011295      23.11099480     -74.97672406 
5
Properties=species:S:1:pos:R:3:forces:R:3 #Structure=T +=T energy=48.9978490419438 pbc="F F F"
C       0.00000000       0.00000000       0.00000000       9.34979369      46.79735276      57.57704570 
H      -0.41712494       0.00000000       1.00702869      -5.07255428     -79.94441090      31.81003223 
H       0.76368590      -0.55485029      -0.54500000     -28.66559358     -30.26142409     -16.71750489 
H       0.76368590       0.55485029       0.54500000      24.28107505      45.03636032      -6.45850397 
H      -0.82628746       0.70571616      -0.08552041       0.11086222      18.37061848     -66.20548002 
5
Properties=species:S:1:pos:R:3:forces:R:3 #Structure=T +=T energy=43.83522215394271 pbc="F F F"
C       0.00000000       0.00000000       0.00000000       8.07623918      45.51592097      52.19796650 
H      -0.41712494       0.00000000       1.00702869      -8.86895619     -75.58146139      27.61204728 
H       0.76368590      -0.55485029      -0.54500000     -27.16637544     -31.41659647     -14.89131011 
H       0.76368590       0.55485029       0.54500000      23.59816812      46.77849355      -7.74110276 
H      -0.81863808       0.69918297      -0.17051357       4.35809529      14.71339512     -57.16670673 
5
Properties=species:S:1:pos:R:3:forces:R:3 #Structure=T +=T energy=39.487403973921786 pbc="F F F"
C       0.00000000       0.00000000       0.00000000       7.57779623      43.97870284      46.13369026 
H      -0.41712494       0.00000000       1.00702869     -12.50374708     -71.66904340      23.75654691 
H       0.76368590      -0.55485029      -0.54500000     -25.53451849     -32.80764493     -12.78270156 
H       0.76368590       0.55485029       0.54500000      23.14720144      48.40050224      -9.09170620 
H      -0.80594152       0.68833908      -0.25445545       7.31277747      12.10656373     -48.01463658 
5
Properties=species:S:1:pos:R:3:forces:R:3 #Structure=T +=T energy=35.93192240218803 pbc="F F F"
C       0.00000000       0.00000000       0.00000000       7.87084249      42.14009761      39.62300111 
H      -0.41712494       0.00000000       1.00702869     -15.98651635     -68.14800275      20.19476555 
H       0.76368590      -0.55485029      -0.54500000     -23.76651445     -34.41272613     -10.42193085 
H       0.76368590       0.55485029       0.54500000      22.88607271      49.89039843     -10.48119013 
H      -0.78827606       0.67325136      -0.33682852       8.99921268      10.53193536     -38.92079653 
5
Properties=species:S:1:pos:R:3:forces:R:3 #Structure=T +=T energy=89.55046632612188 pbc="F F F"
C       0.00000000       0.00000000       0.00000000      28.66342091      51.23207317      59.68195078 
H      -0.41712494       0.00000000       1.00702869      24.00781866    -114.29171389      69.67190265 
H       0.76368590      -0.55485029      -0.54500000     -34.54276027     -32.38495096     -18.52105262 
H       0.76368590       0.55485029       0.54500000      27.25678668      39.78257652      -4.47601484 
H      -0.83866876       0.60932852       0.33682852     -45.38999418      55.66435929    -106.35258955 
5
Properties=species:S:1:pos:R:3:forces:R:3 #Structure=T +=T energy=79.68189748288502 pbc="F F F"
C       0.00000000       0.00000000       0.00000000      23.48099778      49.30237850      62.76873690 
H      -0.41712494       0.00000000       1.00702869      17.51020082    -104.50145874      59.82540955 
H       0.76368590      -0.55485029      -0.54500000     -33.81182562     -31.65022711     -18.90960467 
H       0.76368590       0.55485029       0.54500000      25.21019796      41.71684715      -4.90264507 
H      -0.85746353       0.62298372       0.25445545     -32.39539236      45.13798805     -98.77866000 
5
Properties=species:S:1:pos:R:3:forces:R:3 #Structure=T +=T energy=70.9400884557848 pbc="F F F"
C       0.00000000       0.00000000       0.00000000      18.88967151      47.57882914      63.53899775 
H      -0.41712494       0.00000000       1.00702869      11.95182421     -96.93554109      51.97266624 
H       0.76368590      -0.55485029      -0.54500000     -32.85710983     -31.34240523     -18.73504737 
H       0.76368590       0.55485029       0.54500000      23.54692680      43.71752561      -5.62698617 
H      -0.87097175       0.63279802       0.17051357     -21.53436400      36.98168710     -91.15290833 
5
Properties=species:S:1:pos:R:3:forces:R:3 #Structure=T +=T energy=63.18949398421324 pbc="F F F"
C       0.00000000       0.00000000       0.00000000      14.96372001      45.98647898      62.37441883 
H      -0.41712494       0.00000000       1.00702869       6.96716931     -90.76557398      45.48060116 
H       0.76368590      -0.55485029      -0.54500000     -31.71186773     -31.41217208     -18.07160735 
H       0.76368590       0.55485029       0.54500000      22.25212687      45.70335837      -6.57890352 
H      -0.87911014       0.63871090       0.08552041     -12.46616577      30.47815587     -83.21497023 
5
Properties=species:S:1:pos:R:3:forces:R:3 #Structure=T +=T energy=56.34399389037681 pbc="F F F"
C       0.00000000       0.00000000       0.00000000      11.74880242      44.46218289      59.64342877 
H      -0.41712494       0.00000000       1.00702869       2.35940763     -85.51672003      39.91831544 
H       0.76368590      -0.55485029      -0.54500000     -30.39993226     -31.81491847     -16.98543887 
H       0.76368590       0.55485029       0.54500000      21.28896862      47.61697236      -7.69284814 
H      -0.88182852       0.64068592       0.00000000      -4.99079765      25.24289690     -74.89073248 
5
Properties=species:S:1:pos:R:3:forces:R:3 #Structure=T +=T energy=50.35114973287301 pbc="F F F"
C       0.00000000       0.00000000       0.00000000       9.28388085      42.93027095      55.67287578 
H      -0.41712494       0.00000000       1.00702869      -1.96949536     -80.91347394      35.00085900 
H       0.76368590      -0.55485029      -0.54500000     -28.93769959     -32.51317140     -15.53271008 
H       0.76368590       0.55485029       0.54500000      20.61948628      49.41925106      -8.91823104 
H      -0.87911014       0.63871090      -0.08552041       1.00604430      21.07573414     -66.21817170 
5
Properties=species:S:1:pos:R:3:forces:R:3 #Structure=T +=T energy=45.18072649567487 pbc="F F F"
C       0.00000000       0.00000000       0.00000000       7.60248073      41.31209305      50.73929477 
H      -0.41712494       0.00000000       1.00702869      -6.06808899     -76.79870266      30.55083818 
H       0.76368590      -0.55485029      -0.54500000     -27.33528922     -33.47609470     -13.75991470 
H       0.76368590       0.55485029       0.54500000      20.20791009      51.08993668     -10.22069328 
H      -0.87097175       0.63279802      -0.17051357       5.59365681      17.87961215     -57.30001402 
5
Properties=species:S:1:pos:R:3:forces:R:3 #Structure=T +=T energy=40.81154907855695 pbc="F F F"
C       0.00000000       0.00000000       0.00000000       6.73481897      39.54053007      45.08614826 
H      -0.41712494       0.00000000       1.00702869      -9.96728741     -73.08316484      26.46405616 
H       0.76368590      -0.55485029      -0.54500000     -25.59701739     -34.67810365     -11.70521230 
H       0.76368590       0.55485029       0.54500000      20.01414482      52.61631680     -11.57034553 
H      -0.85746353       0.62298372      -0.25445545       8.81780087      15.61282791     -48.27310284 
5
Properties=species:S:1:pos:R:3:forces:R:3 #Structure=T +=T energy=37.222895566957774 pbc="F F F"
C       0.00000000       0.00000000       0.00000000       6.70171164      37.56722108      38.94847309 
H      -0.41712494       0.00000000       1.00702869     -13.68610136     -69.70936085      22.68177298 
H       0.76368590      -0.55485029      -0.54500000     -23.72136205     -36.09820766      -9.39846923 
H       0.76368590       0.55485029       0.54500000      19.99747796      53.98763169     -12.94083868 
H      -0.83866876       0.60932852      -0.33682852      10.71128497      14.25678054     -39.29788589 
5
Properties=species:S:1:pos:R:3:forces:R:3 #Structure=T +=T energy=91.14547547153207 pbc="F F F"
C       0.00000000       0.00000000       0.00000000      31.06176526      50.00784209      54.08171701 
H      -0.41712494       0.00000000       1.00702869      30.60892781    -112.69996257      75.65743382 
H       0.76368590      -0.55485029      -0.54500000     -34.88763868     -35.54934816     -16.81644025 
H       0.76368590       0.55485029       0.54500000      22.35490124      43.77874579      -6.03046240 
H      -0.88389079       0.54164897       0.33682852     -49.14234863      54.46976074    -106.88655580 
5
Properties=species:S:1:pos:R:3:forces:R:3 #Structure=T +=T energy=81.24902032047626 pbc="F F F"
C       0.00000000       0.00000000       0.00000000      25.39114662      47.36805407      57.78367247 
H      -0.41712494       0.00000000       1.00702869      22.80796695    -103.35001118      64.81216172 
H       0.76368590      -0.55485029      -0.54500000     -34.10872147     -34.66087742     -17.22278498 
H       0.76368590       0.55485029       0.54500000      20.58295998      45.83702016      -6.64724993 
H      -0.90369900       0.55378746       0.25445545     -34.67883837      44.81245609     -98.72594327 
5
Properties=species:S:1:pos:R:3:forces:R:3 #Structure=T +=T energy=72.52280296045392 pbc="F F F"
C       0.00000000       0.00000000       0.00000000      20.32748951      44.98701662      59.17625276 
H      -0.41712494       0.00000000       1.00702869      16.40457146     -96.27659079      56.29016242 
H       0.76368590      -0.55485029      -0.54500000     -33.09319602     -34.18485683     -17.08354458 
H       0.76368590       0.55485029       0.54500000      19.20133297      47.91760860      -7.52737673 
H      -0.91793560       0.56251166       0.17051357     -22.84256021      37.55564842     -90.86171154 
5
Properties=species:S:1:pos:R:3:forces:R:3 #Structure=T +=T energy=64.79918254254198 pbc="F F F"